REMARK  11 active torsions:
REMARK  status: ('A' for Active; 'I' for Inactive)
REMARK    1  A    between atoms: C_2  and  O_3 
REMARK    2  A    between atoms: O_3  and  C_4 
REMARK    3  A    between atoms: C_5  and  C_31 
REMARK    4  A    between atoms: C_8  and  C_9 
REMARK    5  A    between atoms: C_9  and  C_10 
REMARK       I    between atoms: C_10  and  N_12 
REMARK    6  A    between atoms: N_12  and  C_13 
REMARK    7  A    between atoms: C_13  and  C_14 
REMARK    8  A    between atoms: C_13  and  C_18 
REMARK    9  A    between atoms: C_14  and  C_15 
REMARK   10  A    between atoms: C_23  and  N_24 
REMARK   11  A    between atoms: C_31  and  O_32 
ROOT
HETATM    1  C   UNL     1       8.603   1.180   4.495  1.00  0.00     0.222 C 
HETATM    2  O   UNL     1       9.482   0.521   3.961  1.00  0.00    -0.273 OA
HETATM    3  N   UNL     1       8.807   2.446   5.016  1.00  0.00    -0.352 N 
HETATM    4  H   UNL     1       8.072   2.848   5.574  1.00  0.00     0.163 HD
ENDROOT
BRANCH   3   5
HETATM    5  C   UNL     1      10.088   3.142   4.921  1.00  0.00     0.120 C 
BRANCH   5   6
HETATM    6  C   UNL     1      10.025   4.356   3.952  1.00  0.00     0.034 C 
BRANCH   6   7
HETATM    7  C   UNL     1       9.140   5.571   4.276  1.00  0.00    -0.021 C 
HETATM    8  C   UNL     1       9.469   6.690   3.271  1.00  0.00     0.009 C 
HETATM    9  C   UNL     1       7.647   5.277   4.202  1.00  0.00     0.009 C 
ENDBRANCH   6   7
ENDBRANCH   5   6
BRANCH   5  10
HETATM   10  C   UNL     1      10.735   3.479   6.262  1.00  0.00    -0.009 A 
HETATM   11  C   UNL     1       9.828   3.835   7.309  1.00  0.00     0.011 A 
HETATM   12  C   UNL     1      10.231   4.023   8.622  1.00  0.00     0.001 A 
HETATM   13  C   UNL     1      11.561   3.867   8.921  1.00  0.00     0.002 A 
HETATM   14  C   UNL     1      12.476   3.580   7.897  1.00  0.00     0.030 A 
HETATM   15  C   UNL     1      12.144   3.414   6.521  1.00  0.00     0.038 A 
BRANCH  15  16
HETATM   16  N   UNL     1      13.169   3.166   5.596  1.00  0.00    -0.380 N 
HETATM   17  C   UNL     1      13.087   3.187   4.122  1.00  0.00     0.123 C 
HETATM   18  C   UNL     1      13.697   1.914   3.545  1.00  0.00     0.020 C 
HETATM   19  C   UNL     1      15.159   1.811   3.939  1.00  0.00     0.003 C 
HETATM   20  C   UNL     1      15.303   1.941   5.450  1.00  0.00     0.020 C 
HETATM   21  C   UNL     1      14.604   3.198   5.981  1.00  0.00     0.123 C 
ENDBRANCH  15  16
ENDBRANCH   5  10
ENDBRANCH   3   5
BRANCH   1  22
HETATM   22  C   UNL     1       7.163   0.692   4.657  1.00  0.00     0.141 C 
BRANCH  22  23
HETATM   23  C   UNL     1       6.726  -0.249   3.558  1.00  0.00    -0.047 A 
HETATM   24  C   UNL     1       7.294  -1.521   3.442  1.00  0.00     0.009 A 
HETATM   25  C   UNL     1       6.976  -2.338   2.355  1.00  0.00     0.022 A 
HETATM   26  C   UNL     1       6.054  -1.918   1.383  1.00  0.00     0.071 A 
HETATM   27  C   UNL     1       5.404  -0.681   1.549  1.00  0.00     0.086 A 
HETATM   28  C   UNL     1       5.775   0.157   2.612  1.00  0.00     0.045 A 
BRANCH  26  29
HETATM   29  C   UNL     1       5.847  -2.838   0.222  1.00  0.00     0.178 C 
HETATM   30  O   UNL     1       6.348  -3.953   0.170  1.00  0.00    -0.646 OA
BRANCH  29  31
HETATM   31  O   UNL     1       5.106  -2.343  -0.790  1.00  0.00    -0.773 OA
HETATM   32  H   UNL     1       4.766  -1.442  -0.606  1.00  0.00     0.167 HD
ENDBRANCH  29  31
ENDBRANCH  26  29
BRANCH  27  33
HETATM   33  O   UNL     1       4.443  -0.316   0.632  1.00  0.00    -0.350 OA
BRANCH  33  34
HETATM   34  C   UNL     1       3.409   0.536   1.146  1.00  0.00     0.171 C 
HETATM   35  C   UNL     1       2.196   0.439   0.241  1.00  0.00     0.034 C 
ENDBRANCH  33  34
ENDBRANCH  27  33
ENDBRANCH  22  23
ENDBRANCH   1  22
TORSDOF 11
