REMARK  6 active torsions:
REMARK  status: ('A' for Active; 'I' for Inactive)
REMARK    1  A    between atoms: C_1  and  C_2 
REMARK    2  A    between atoms: C_1  and  C_14 
REMARK    3  A    between atoms: C_1  and  C_21 
REMARK    4  A    between atoms: C_2  and  C_3 
REMARK       I    between atoms: C_3  and  N_5 
REMARK    5  A    between atoms: C_14  and  C_15 
REMARK    6  A    between atoms: C_21  and  O_22 
ROOT
HETATM    1  C   UNL     1       2.618  -0.474   0.156  1.00  0.00     0.096 C 
ENDROOT
BRANCH   1   2
HETATM    2  C   UNL     1       2.783  -0.559  -1.369  1.00  0.00     0.118 C 
BRANCH   2   3
HETATM    3  C   UNL     1       1.929  -1.676  -1.941  1.00  0.00     0.220 C 
HETATM    4  O   UNL     1       0.938  -2.080  -1.323  1.00  0.00    -0.273 OA
HETATM    5  N   UNL     1       2.306  -2.202  -3.151  1.00  0.00    -0.351 N 
HETATM    6  C   UNL     1       1.551  -3.278  -3.774  1.00  0.00     0.130 C 
HETATM    7  C   UNL     1       3.515  -1.893  -3.908  1.00  0.00     0.130 C 
HETATM    8  C   UNL     1       2.506  -3.855  -4.820  1.00  0.00     0.009 C 
HETATM    9  C   UNL     1       1.825  -4.575  -5.977  1.00  0.00     0.007 C 
HETATM   10  C   UNL     1       3.339  -2.633  -5.238  1.00  0.00     0.009 C 
HETATM   11  C   UNL     1       1.102  -3.630  -6.930  1.00  0.00     0.000 C 
HETATM   12  C   UNL     1       2.029  -2.528  -7.428  1.00  0.00     0.000 C 
HETATM   13  C   UNL     1       2.645  -1.740  -6.278  1.00  0.00     0.007 C 
ENDBRANCH   2   3
ENDBRANCH   1   2
BRANCH   1  14
HETATM   14  C   UNL     1       3.402   0.701   0.773  1.00  0.00     0.054 C 
BRANCH  14  15
HETATM   15  C   UNL     1       3.009   2.072   0.278  1.00  0.00    -0.057 A 
HETATM   16  C   UNL     1       1.706   2.561   0.440  1.00  0.00     0.007 A 
HETATM   17  C   UNL     1       1.372   3.842  -0.007  1.00  0.00     0.001 A 
HETATM   18  C   UNL     1       2.336   4.647  -0.612  1.00  0.00     0.000 A 
HETATM   19  C   UNL     1       3.637   4.175  -0.767  1.00  0.00     0.001 A 
HETATM   20  C   UNL     1       3.972   2.896  -0.323  1.00  0.00     0.007 A 
ENDBRANCH  14  15
ENDBRANCH   1  14
BRANCH   1  21
HETATM   21  C   UNL     1       3.145  -1.761   0.777  1.00  0.00     0.144 C 
HETATM   22  O   UNL     1       4.289  -1.918   1.171  1.00  0.00    -0.650 OA
BRANCH  21  23
HETATM   23  O   UNL     1       2.230  -2.759   0.834  1.00  0.00    -0.776 OA
HETATM   24  H   UNL     1       1.409  -2.569   0.318  1.00  0.00     0.167 HD
ENDBRANCH  21  23
ENDBRANCH   1  21
TORSDOF 6
