REMARK  9 active torsions:
REMARK  status: ('A' for Active; 'I' for Inactive)
REMARK    1  A    between atoms: C_1  and  C_12 
REMARK    2  A    between atoms: C_3  and  C_4 
REMARK    3  A    between atoms: C_4  and  O_5 
REMARK    4  A    between atoms: C_6  and  O_7 
REMARK    5  A    between atoms: C_8  and  O_9 
REMARK    6  A    between atoms: C_10  and  O_11 
REMARK    7  A    between atoms: C_17  and  C_18 
REMARK    8  A    between atoms: C_18  and  C_19 
REMARK    9  A    between atoms: C_22  and  C_24 
ROOT
HETATM    1  C   UNL     1       2.536   1.270   0.445  1.00  0.00    -0.026 A 
HETATM    2  C   UNL     1       2.130   2.415  -0.248  1.00  0.00     0.010 A 
HETATM    3  C   UNL     1       2.563   3.680   0.142  1.00  0.00     0.008 A 
HETATM    4  C   UNL     1       3.419   3.842   1.239  1.00  0.00    -0.055 A 
HETATM    5  C   UNL     1       3.868   5.240   1.566  1.00  0.00     0.049 C 
HETATM    6  C   UNL     1       3.791   2.709   1.995  1.00  0.00    -0.047 A 
HETATM    7  C   UNL     1       3.358   1.431   1.571  1.00  0.00     0.017 A 
ENDROOT
BRANCH   1   8
HETATM    8  C   UNL     1       2.125  -0.088  -0.093  1.00  0.00     0.186 C 
HETATM    9  O   UNL     1       2.047  -1.048   0.973  1.00  0.00    -0.368 OA
HETATM   10  C   UNL     1       1.509  -2.304   0.541  1.00  0.00     0.177 C 
HETATM   11  C   UNL     1       2.418  -2.941  -0.525  1.00  0.00     0.180 C 
HETATM   12  C   UNL     1       2.621  -1.965  -1.688  1.00  0.00     0.181 C 
HETATM   13  C   UNL     1       3.094  -0.587  -1.194  1.00  0.00     0.182 C 
BRANCH  10  14
HETATM   14  C   UNL     1       1.345  -3.235   1.753  1.00  0.00     0.198 C 
BRANCH  14  15
HETATM   15  O   UNL     1       0.719  -4.467   1.412  1.00  0.00    -0.398 OA
HETATM   16  H   UNL     1       1.167  -4.802   0.601  1.00  0.00     0.209 HD
ENDBRANCH  14  15
ENDBRANCH  10  14
BRANCH  11  17
HETATM   17  O   UNL     1       1.848  -4.179  -0.976  1.00  0.00    -0.390 OA
HETATM   18  H   UNL     1       1.437  -4.030  -1.848  1.00  0.00     0.210 HD
ENDBRANCH  11  17
BRANCH  12  19
HETATM   19  O   UNL     1       3.530  -2.523  -2.645  1.00  0.00    -0.390 OA
HETATM   20  H   UNL     1       4.438  -2.425  -2.303  1.00  0.00     0.210 HD
ENDBRANCH  12  19
BRANCH  13  21
HETATM   21  O   UNL     1       3.178   0.311  -2.309  1.00  0.00    -0.390 OA
HETATM   22  H   UNL     1       2.393   0.197  -2.871  1.00  0.00     0.210 HD
ENDBRANCH  13  21
ENDBRANCH   1   8
BRANCH   6  23
HETATM   23  C   UNL     1       4.653   2.800   3.245  1.00  0.00     0.085 C 
BRANCH  23  24
HETATM   24  C   UNL     1       6.125   2.668   2.971  1.00  0.00    -0.013 A 
HETATM   25  C   UNL     1       7.053   3.678   2.820  1.00  0.00     0.016 A 
HETATM   26  C   UNL     1       8.342   3.181   2.486  1.00  0.00     0.021 A 
HETATM   27  C   UNL     1       8.398   1.798   2.441  1.00  0.00     0.015 A 
HETATM   28  S   UNL     1       6.867   1.129   2.846  1.00  0.00    -0.094 SA
BRANCH  27  29
HETATM   29  C   UNL     1       9.559   0.950   2.112  1.00  0.00    -0.019 A 
HETATM   30  C   UNL     1      10.862   1.431   2.346  1.00  0.00     0.016 A 
HETATM   31  C   UNL     1      11.985   0.690   1.972  1.00  0.00     0.043 A 
HETATM   32  C   UNL     1      11.815  -0.548   1.367  1.00  0.00     0.116 A 
HETATM   33  F   UNL     1      12.889  -1.252   0.991  1.00  0.00    -0.206 F 
HETATM   34  C   UNL     1      10.545  -1.059   1.139  1.00  0.00     0.043 A 
HETATM   35  C   UNL     1       9.420  -0.314   1.510  1.00  0.00     0.016 A 
ENDBRANCH  27  29
ENDBRANCH  23  24
ENDBRANCH   6  23
TORSDOF 9
