REMARK  5 active torsions:
REMARK  status: ('A' for Active; 'I' for Inactive)
REMARK    1  A    between atoms: C_2  and  C_3 
REMARK    2  A    between atoms: C_3  and  C_4 
REMARK    3  A    between atoms: C_4  and  N_5 
REMARK       I    between atoms: N_5  and  C_6 
REMARK       I    between atoms: C_6  and  N_8 
REMARK    4  A    between atoms: N_8  and  S_9 
REMARK    5  A    between atoms: S_9  and  C_12 
ROOT
HETATM    1  N   UNL     1       5.340   1.680  -2.286  1.00  0.00    -0.342 N 
HETATM    2  C   UNL     1       6.697   1.818  -2.312  1.00  0.00     0.329 C 
HETATM    3  O   UNL     1       7.443   1.305  -1.496  1.00  0.00    -0.246 OA
HETATM    4  N   UNL     1       7.148   2.566  -3.387  1.00  0.00    -0.232 N 
HETATM    5  H   UNL     1       4.776   2.217  -2.924  1.00  0.00     0.164 HD
HETATM    6  H   UNL     1       6.531   2.901  -4.110  1.00  0.00     0.183 HD
ENDROOT
BRANCH   4   7
HETATM    7  S   UNL     1       8.762   2.801  -3.730  1.00  0.00     0.266 S 
HETATM    8  O   UNL     1       8.798   3.302  -5.089  1.00  0.00    -0.200 OA
HETATM    9  O   UNL     1       9.357   3.556  -2.649  1.00  0.00    -0.200 OA
BRANCH   7  10
HETATM   10  C   UNL     1       9.453   1.167  -3.766  1.00  0.00     0.080 A 
HETATM   11  C   UNL     1       8.961   0.230  -4.680  1.00  0.00     0.026 A 
HETATM   12  C   UNL     1       9.491  -1.063  -4.694  1.00  0.00     0.008 A 
HETATM   13  C   UNL     1      10.517  -1.420  -3.808  1.00  0.00    -0.062 A 
HETATM   14  C   UNL     1      11.085  -2.810  -3.802  1.00  0.00     0.048 C 
HETATM   15  C   UNL     1      11.012  -0.464  -2.909  1.00  0.00     0.008 A 
HETATM   16  C   UNL     1      10.482   0.828  -2.885  1.00  0.00     0.026 A 
ENDBRANCH   7  10
ENDBRANCH   4   7
BRANCH   1  17
HETATM   17  C   UNL     1       4.691   0.904  -1.247  1.00  0.00     0.124 C 
BRANCH  17  18
HETATM   18  C   UNL     1       4.461   1.698   0.039  1.00  0.00     0.019 C 
BRANCH  18  19
HETATM   19  C   UNL     1       3.472   2.849  -0.157  1.00  0.00    -0.003 C 
HETATM   20  C   UNL     1       3.218   3.599   1.141  1.00  0.00     0.005 C 
ENDBRANCH  18  19
ENDBRANCH  17  18
ENDBRANCH   1  17
TORSDOF 5
