REMARK  4 active torsions:
REMARK  status: ('A' for Active; 'I' for Inactive)
REMARK       I    between atoms: N_4  and  C_9 
REMARK    1  A    between atoms: C_9  and  C_11 
REMARK    2  A    between atoms: C_11  and  N_12 
REMARK    3  A    between atoms: C_11  and  C_13 
REMARK    4  A    between atoms: C_19  and  O_20 
ROOT
HETATM    1  C   UNL     1       9.317   4.661   2.119  1.00  0.00     0.013 A 
HETATM    2  C   UNL     1       9.419   3.173   1.908  1.00  0.00     0.032 A 
HETATM    3  C   UNL     1       8.081   3.821   1.849  1.00  0.00     0.093 A 
HETATM    4  N   UNL     1       7.470   4.364   0.675  1.00  0.00    -0.329 N 
HETATM    5  C   UNL     1       7.984   5.769   0.453  1.00  0.00     0.181 C 
HETATM    6  C   UNL     1       9.425   5.654   0.972  1.00  0.00     0.046 C 
HETATM    7  C   UNL     1       7.838   6.133  -1.015  1.00  0.00     0.005 C 
HETATM    8  N   UNL     1       7.717   6.435  -2.234  1.00  0.00    -0.099 N 
HETATM    9  C   UNL     1       6.535   3.735  -0.127  1.00  0.00     0.255 C 
HETATM   10  O   UNL     1       5.787   4.370  -0.875  1.00  0.00    -0.271 OA
ENDROOT
BRANCH   9  11
HETATM   11  C   UNL     1       6.401   2.180  -0.042  1.00  0.00     0.317 C 
BRANCH  11  12
HETATM   12  N   UNL     1       4.945   1.901   0.081  1.00  0.00     0.092 N 
HETATM   13  H   UNL     1       4.492   2.321  -0.738  1.00  0.00     0.313 HD
HETATM   14  H   UNL     1       4.575   2.439   0.865  1.00  0.00     0.313 HD
ENDBRANCH  11  12
BRANCH  11  15
HETATM   15  C   UNL     1       7.022   1.381  -1.259  1.00  0.00     0.003 C 
HETATM   16  C   UNL     1       6.534   1.875  -2.653  1.00  0.00     0.017 C 
HETATM   17  C   UNL     1       7.116   1.012  -3.794  1.00  0.00    -0.010 C 
HETATM   18  C   UNL     1       6.689  -0.451  -3.601  1.00  0.00     0.009 C 
HETATM   19  C   UNL     1       8.649   1.097  -3.772  1.00  0.00     0.042 C 
HETATM   20  C   UNL     1       7.222  -0.980  -2.260  1.00  0.00    -0.010 C 
HETATM   21  C   UNL     1       8.750  -0.875  -2.233  1.00  0.00     0.042 C 
HETATM   22  C   UNL     1       6.639  -0.130  -1.121  1.00  0.00     0.017 C 
HETATM   23  C   UNL     1       9.171   0.591  -2.417  1.00  0.00     0.059 C 
HETATM   24  C   UNL     1       8.575   1.450  -1.275  1.00  0.00     0.049 C 
BRANCH  23  25
HETATM   25  O   UNL     1      10.591   0.683  -2.384  1.00  0.00    -0.390 OA
HETATM   26  H   UNL     1      10.940   0.168  -3.128  1.00  0.00     0.210 HD
ENDBRANCH  23  25
ENDBRANCH  11  15
ENDBRANCH   9  11
TORSDOF 4
