REMARK  13 active torsions:
REMARK  status: ('A' for Active; 'I' for Inactive)
REMARK    1  A    between atoms: O_1  and  C_2 
REMARK    2  A    between atoms: C_2  and  C_3 
REMARK    3  A    between atoms: C_5  and  C_12 
REMARK    4  A    between atoms: C_6  and  O_7 
REMARK    5  A    between atoms: C_8  and  O_9 
REMARK    6  A    between atoms: C_10  and  O_11 
REMARK    7  A    between atoms: C_17  and  C_18 
REMARK    8  A    between atoms: C_18  and  C_19 
REMARK    9  A    between atoms: C_22  and  O_23 
REMARK   10  A    between atoms: O_23  and  C_24 
REMARK   11  A    between atoms: C_24  and  C_25 
REMARK   12  A    between atoms: C_25  and  O_26 
REMARK   13  A    between atoms: O_26  and  C_27 
ROOT
HETATM    1  C   UNL     1       6.465   0.657   0.031  1.00  0.00    -0.026 A 
HETATM    2  C   UNL     1       7.227   1.212  -1.002  1.00  0.00     0.011 A 
HETATM    3  C   UNL     1       8.560   0.835  -1.174  1.00  0.00     0.025 A 
HETATM    4  C   UNL     1       9.157  -0.085  -0.306  1.00  0.00     0.040 A 
HETATM    5 CL   UNL     1      10.806  -0.499  -0.607  1.00  0.00    -0.084 Cl
HETATM    6  C   UNL     1       8.430  -0.629   0.762  1.00  0.00    -0.032 A 
HETATM    7  C   UNL     1       7.081  -0.261   0.898  1.00  0.00     0.019 A 
ENDROOT
BRANCH   1   8
HETATM    8  C   UNL     1       4.996   1.013   0.190  1.00  0.00     0.186 C 
HETATM    9  O   UNL     1       4.666   0.853   1.574  1.00  0.00    -0.368 OA
HETATM   10  C   UNL     1       3.317   1.189   1.907  1.00  0.00     0.177 C 
HETATM   11  C   UNL     1       2.348   0.278   1.144  1.00  0.00     0.180 C 
HETATM   12  C   UNL     1       2.619   0.378  -0.367  1.00  0.00     0.181 C 
HETATM   13  C   UNL     1       4.101   0.111  -0.688  1.00  0.00     0.182 C 
BRANCH  10  14
HETATM   14  C   UNL     1       3.149   1.014   3.423  1.00  0.00     0.198 C 
BRANCH  14  15
HETATM   15  O   UNL     1       3.938   1.984   4.115  1.00  0.00    -0.398 OA
HETATM   16  H   UNL     1       3.928   1.737   5.055  1.00  0.00     0.209 HD
ENDBRANCH  14  15
ENDBRANCH  10  14
BRANCH  11  17
HETATM   17  O   UNL     1       0.995   0.622   1.454  1.00  0.00    -0.390 OA
HETATM   18  H   UNL     1       0.730   1.378   0.902  1.00  0.00     0.210 HD
ENDBRANCH  11  17
BRANCH  12  19
HETATM   19  O   UNL     1       1.769  -0.522  -1.087  1.00  0.00    -0.390 OA
HETATM   20  H   UNL     1       2.074  -1.435  -0.920  1.00  0.00     0.210 HD
ENDBRANCH  12  19
BRANCH  13  21
HETATM   21  O   UNL     1       4.344   0.315  -2.088  1.00  0.00    -0.390 OA
HETATM   22  H   UNL     1       3.910   1.138  -2.368  1.00  0.00     0.210 HD
ENDBRANCH  13  21
ENDBRANCH   1   8
BRANCH   6  23
HETATM   23  C   UNL     1       9.011  -1.588   1.778  1.00  0.00     0.078 C 
BRANCH  23  24
HETATM   24  C   UNL     1       8.804  -3.044   1.438  1.00  0.00    -0.054 A 
HETATM   25  C   UNL     1       9.801  -3.758   0.760  1.00  0.00     0.010 A 
HETATM   26  C   UNL     1       9.607  -5.094   0.401  1.00  0.00     0.037 A 
HETATM   27  C   UNL     1       8.414  -5.739   0.711  1.00  0.00     0.068 A 
HETATM   28  C   UNL     1       7.425  -5.044   1.412  1.00  0.00     0.037 A 
HETATM   29  C   UNL     1       7.614  -3.707   1.772  1.00  0.00     0.010 A 
BRANCH  27  30
HETATM   30  O   UNL     1       8.097  -7.027   0.390  1.00  0.00    -0.349 OA
BRANCH  30  31
HETATM   31  C   UNL     1       9.029  -7.735  -0.430  1.00  0.00     0.201 C 
BRANCH  31  32
HETATM   32  C   UNL     1       8.431  -9.093  -0.771  1.00  0.00     0.195 C 
BRANCH  32  33
HETATM   33  O   UNL     1       9.366  -9.857  -1.532  1.00  0.00    -0.384 OA
BRANCH  33  34
HETATM   34  C   UNL     1       8.849 -11.151  -1.895  1.00  0.00     0.121 A 
HETATM   35  C   UNL     1       9.767 -11.993  -2.733  1.00  0.00     0.034 A 
HETATM   36  C   UNL     1       8.564 -11.349  -3.356  1.00  0.00     0.034 A 
ENDBRANCH  33  34
ENDBRANCH  32  33
ENDBRANCH  31  32
ENDBRANCH  30  31
ENDBRANCH  27  30
ENDBRANCH  23  24
ENDBRANCH   6  23
TORSDOF 13
