REMARK  7 active torsions:
REMARK  status: ('A' for Active; 'I' for Inactive)
REMARK    1  A    between atoms: C_2  and  C_3 
REMARK    2  A    between atoms: C_6  and  C_7 
REMARK    3  A    between atoms: C_7  and  C_8 
REMARK    4  A    between atoms: C_8  and  O_9 
REMARK    5  A    between atoms: O_9  and  C_10 
REMARK    6  A    between atoms: C_13  and  C_14 
REMARK    7  A    between atoms: C_14  and  C_15 
ROOT
HETATM    1  C   UNL     1       3.497   6.939   5.093  1.00  0.00     0.068 A 
HETATM    2  C   UNL     1       2.736   7.455   4.042  1.00  0.00     0.037 A 
HETATM    3  C   UNL     1       2.369   8.804   4.021  1.00  0.00     0.010 A 
HETATM    4  C   UNL     1       2.756   9.663   5.054  1.00  0.00    -0.056 A 
HETATM    5  C   UNL     1       3.506   9.141   6.114  1.00  0.00     0.010 A 
HETATM    6  C   UNL     1       3.872   7.789   6.134  1.00  0.00     0.037 A 
ENDROOT
BRANCH   1   7
HETATM    7  O   UNL     1       3.928   5.637   5.197  1.00  0.00    -0.351 OA
BRANCH   7   8
HETATM    8  C   UNL     1       3.637   4.823   4.055  1.00  0.00     0.181 C 
BRANCH   8   9
HETATM    9  C   UNL     1       4.198   3.412   4.214  1.00  0.00     0.086 C 
BRANCH   9  10
HETATM   10  C   UNL     1       3.819   2.553   3.029  1.00  0.00     0.036 A 
HETATM   11  N   UNL     1       3.672   3.177   1.834  1.00  0.00    -0.265 NA
HETATM   12  C   UNL     1       3.360   2.422   0.759  1.00  0.00     0.124 A 
HETATM   13  C   UNL     1       3.189   1.046   0.800  1.00  0.00    -0.041 A 
HETATM   14  C   UNL     1       3.353   0.420   2.037  1.00  0.00     0.010 A 
HETATM   15  C   UNL     1       3.675   1.177   3.164  1.00  0.00     0.028 A 
BRANCH  13  16
HETATM   16  C   UNL     1       2.905   0.267  -0.452  1.00  0.00     0.035 C 
HETATM   17  C   UNL     1       4.192  -0.193  -1.119  1.00  0.00     0.010 C 
ENDBRANCH  13  16
ENDBRANCH   9  10
ENDBRANCH   8   9
ENDBRANCH   7   8
ENDBRANCH   1   7
BRANCH   4  18
HETATM   18  C   UNL     1       2.382  11.128   4.996  1.00  0.00     0.063 C 
BRANCH  18  19
HETATM   19  C   UNL     1       1.024  11.514   5.586  1.00  0.00     0.153 A 
HETATM   20  S   UNL     1       0.845  11.155   7.365  1.00  0.00    -0.054 SA
HETATM   21  C   UNL     1      -0.565  10.160   7.120  1.00  0.00     0.287 A 
HETATM   22  O   UNL     1      -1.140   9.564   8.013  1.00  0.00    -0.260 OA
HETATM   23  N   UNL     1      -0.925  10.160   5.815  1.00  0.00    -0.287 N 
HETATM   24  C   UNL     1      -0.134  10.807   4.916  1.00  0.00     0.239 A 
HETATM   25  H   UNL     1      -1.723   9.623   5.513  1.00  0.00     0.172 HD
HETATM   26  O   UNL     1      -0.359  10.820   3.712  1.00  0.00    -0.272 OA
ENDBRANCH  18  19
ENDBRANCH   4  18
TORSDOF 7
