REMARK  6 active torsions:
REMARK  status: ('A' for Active; 'I' for Inactive)
REMARK    1  A    between atoms: N_1  and  C_2 
REMARK    2  A    between atoms: C_2  and  C_3 
REMARK    3  A    between atoms: C_2  and  C_19 
REMARK    4  A    between atoms: C_3  and  C_4 
REMARK       I    between atoms: C_4  and  N_6 
REMARK    5  A    between atoms: C_14  and  C_15 
REMARK    6  A    between atoms: C_19  and  C_20 
ROOT
HETATM    1  C   UNL     1       2.777   1.480   0.085  1.00  0.00     0.138 C 
ENDROOT
BRANCH   1   2
HETATM    2  C   UNL     1       2.248   0.052  -0.094  1.00  0.00     0.231 C 
BRANCH   2   3
HETATM    3  N   UNL     1       2.768  -0.770   1.020  1.00  0.00     0.083 N 
HETATM    4  H   UNL     1       2.525  -0.353   1.918  1.00  0.00     0.313 HD
HETATM    5  H   UNL     1       3.787  -0.808   0.983  1.00  0.00     0.313 HD
ENDBRANCH   2   3
BRANCH   2   6
HETATM    6  C   UNL     1       2.662  -0.584  -1.445  1.00  0.00     0.077 C 
BRANCH   6   7
HETATM    7  C   UNL     1       2.174  -2.007  -1.625  1.00  0.00    -0.014 A 
HETATM    8  C   UNL     1       0.803  -2.309  -1.587  1.00  0.00     0.055 A 
HETATM    9  C   UNL     1       0.377  -3.628  -1.722  1.00  0.00     0.155 A 
HETATM   10  F   UNL     1      -0.933  -3.904  -1.665  1.00  0.00    -0.203 F 
HETATM   11  C   UNL     1       1.299  -4.651  -1.914  1.00  0.00     0.157 A 
HETATM   12  F   UNL     1       0.882  -5.918  -2.045  1.00  0.00    -0.203 F 
HETATM   13  C   UNL     1       2.657  -4.371  -1.976  1.00  0.00     0.088 A 
HETATM   14  C   UNL     1       3.083  -3.054  -1.830  1.00  0.00     0.125 A 
HETATM   15  F   UNL     1       4.398  -2.797  -1.889  1.00  0.00    -0.205 F 
ENDBRANCH   6   7
ENDBRANCH   2   6
ENDBRANCH   1   2
BRANCH   1  16
HETATM   16  C   UNL     1       2.198   2.531  -0.852  1.00  0.00     0.222 C 
HETATM   17  O   UNL     1       1.416   2.245  -1.754  1.00  0.00    -0.273 OA
HETATM   18  N   UNL     1       2.639   3.838  -0.634  1.00  0.00    -0.343 N 
HETATM   19  C   UNL     1       2.116   4.926  -1.467  1.00  0.00     0.146 C 
HETATM   20  C   UNL     1       3.348   4.252   0.584  1.00  0.00     0.206 C 
HETATM   21  C   UNL     1       3.250   5.842  -1.932  1.00  0.00     0.152 C 
HETATM   22  N   UNL     1       4.122   6.185  -0.825  1.00  0.00    -0.310 N 
HETATM   23  C   UNL     1       4.175   5.459   0.335  1.00  0.00     0.148 A 
HETATM   24  C   UNL     1       5.057   7.180  -0.707  1.00  0.00     0.237 A 
HETATM   25  N   UNL     1       5.055   6.008   1.143  1.00  0.00    -0.133 NA
HETATM   26  N   UNL     1       5.605   7.081   0.494  1.00  0.00    -0.125 NA
BRANCH  24  27
HETATM   27  C   UNL     1       5.394   8.177  -1.752  1.00  0.00     0.453 C 
HETATM   28  F   UNL     1       4.702   7.977  -2.907  1.00  0.00    -0.163 F 
HETATM   29  F   UNL     1       5.114   9.446  -1.358  1.00  0.00    -0.163 F 
HETATM   30  F   UNL     1       6.708   8.144  -2.091  1.00  0.00    -0.163 F 
ENDBRANCH  24  27
ENDBRANCH   1  16
TORSDOF 6
