REMARK  8 active torsions:
REMARK  status: ('A' for Active; 'I' for Inactive)
REMARK    1  A    between atoms: O_2  and  C_3 
REMARK    2  A    between atoms: C_4  and  C_10 
REMARK       I    between atoms: C_10  and  N_12 
REMARK    3  A    between atoms: N_12  and  C_13 
REMARK    4  A    between atoms: C_13  and  C_14 
REMARK    5  A    between atoms: C_14  and  C_15 
REMARK    6  A    between atoms: C_18  and  S_21 
REMARK    7  A    between atoms: S_21  and  N_24 
REMARK       I    between atoms: N_24  and  C_25 
REMARK       I    between atoms: C_25  and  N_27 
REMARK    8  A    between atoms: N_27  and  C_28 
ROOT
HETATM    1  C   UNL     1      -1.420  -6.496  -1.684  1.00  0.00    -0.057 A 
HETATM    2  C   UNL     1      -1.567  -7.860  -1.970  1.00  0.00     0.009 A 
HETATM    3  C   UNL     1      -2.571  -8.318  -2.829  1.00  0.00     0.026 A 
HETATM    4  C   UNL     1      -3.477  -7.413  -3.380  1.00  0.00     0.080 A 
HETATM    5  C   UNL     1      -3.366  -6.051  -3.094  1.00  0.00     0.026 A 
HETATM    6  C   UNL     1      -2.348  -5.597  -2.244  1.00  0.00     0.009 A 
ENDROOT
BRANCH   1   7
HETATM    7  C   UNL     1      -0.340  -5.980  -0.747  1.00  0.00     0.058 C 
BRANCH   7   8
HETATM    8  C   UNL     1       0.966  -6.795  -0.745  1.00  0.00     0.127 C 
BRANCH   8   9
HETATM    9  N   UNL     1       1.954  -6.296   0.200  1.00  0.00    -0.356 N 
HETATM   10  C   UNL     1       1.941  -6.687   1.534  1.00  0.00     0.254 C 
HETATM   11  O   UNL     1       1.111  -7.482   1.961  1.00  0.00    -0.268 OA
HETATM   12  H   UNL     1       2.623  -5.623  -0.145  1.00  0.00     0.162 HD
BRANCH  10  13
HETATM   13  C   UNL     1       2.988  -6.081   2.429  1.00  0.00     0.066 A 
HETATM   14  C   UNL     1       2.794  -5.954   3.823  1.00  0.00     0.084 A 
HETATM   15  C   UNL     1       3.750  -5.273   4.592  1.00  0.00     0.039 A 
HETATM   16  C   UNL     1       4.920  -4.784   4.014  1.00  0.00     0.026 A 
HETATM   17  C   UNL     1       5.147  -4.984   2.661  1.00  0.00     0.035 A 
HETATM   18  C   UNL     1       4.198  -5.629   1.869  1.00  0.00     0.043 A 
HETATM   19 CL   UNL     1       6.607  -4.410   1.953  1.00  0.00    -0.084 Cl
BRANCH  14  20
HETATM   20  O   UNL     1       1.641  -6.429   4.397  1.00  0.00    -0.355 OA
HETATM   21  C   UNL     1       1.777  -6.930   5.729  1.00  0.00     0.210 C 
ENDBRANCH  14  20
ENDBRANCH  10  13
ENDBRANCH   8   9
ENDBRANCH   7   8
ENDBRANCH   1   7
BRANCH   4  22
HETATM   22  S   UNL     1      -4.702  -7.984  -4.537  1.00  0.00     0.266 S 
HETATM   23  O   UNL     1      -5.173  -6.827  -5.268  1.00  0.00    -0.200 OA
HETATM   24  O   UNL     1      -4.180  -9.131  -5.244  1.00  0.00    -0.200 OA
BRANCH  22  25
HETATM   25  N   UNL     1      -5.985  -8.434  -3.575  1.00  0.00    -0.232 N 
HETATM   26  C   UNL     1      -6.006  -9.576  -2.794  1.00  0.00     0.330 C 
HETATM   27  O   UNL     1      -5.031 -10.299  -2.644  1.00  0.00    -0.246 OA
HETATM   28  N   UNL     1      -7.207  -9.817  -2.187  1.00  0.00    -0.338 N 
HETATM   29  H   UNL     1      -7.893  -9.085  -2.164  1.00  0.00     0.164 HD
HETATM   30  H   UNL     1      -6.822  -7.895  -3.756  1.00  0.00     0.183 HD
BRANCH  28  31
HETATM   31  C   UNL     1      -7.365 -10.967  -1.298  1.00  0.00     0.086 C 
HETATM   32  C   UNL     1      -8.819 -11.449  -1.275  1.00  0.00     0.025 C 
HETATM   33  C   UNL     1      -8.997 -12.636  -0.327  1.00  0.00     0.002 C 
HETATM   34  C   UNL     1      -8.512 -12.302   1.080  1.00  0.00     0.000 C 
HETATM   35  C   UNL     1      -7.063 -11.823   1.070  1.00  0.00     0.002 C 
HETATM   36  C   UNL     1      -6.862 -10.646   0.117  1.00  0.00     0.025 C 
ENDBRANCH  28  31
ENDBRANCH  22  25
ENDBRANCH   4  22
TORSDOF 8
