REMARK  7 active torsions:
REMARK  status: ('A' for Active; 'I' for Inactive)
REMARK    1  A    between atoms: C_5  and  C_8 
REMARK       I    between atoms: C_8  and  N_10 
REMARK    2  A    between atoms: N_10  and  C_11 
REMARK    3  A    between atoms: C_11  and  C_12 
REMARK    4  A    between atoms: C_12  and  C_13 
REMARK    5  A    between atoms: C_16  and  S_19 
REMARK    6  A    between atoms: S_19  and  N_22 
REMARK       I    between atoms: N_22  and  C_23 
REMARK       I    between atoms: C_23  and  N_25 
REMARK    7  A    between atoms: N_25  and  C_26 
ROOT
HETATM    1  C   UNL     1      -7.797   1.620   0.011  1.00  0.00    -0.057 A 
HETATM    2  C   UNL     1      -8.355   0.332   0.039  1.00  0.00     0.009 A 
HETATM    3  C   UNL     1      -9.738   0.144   0.099  1.00  0.00     0.026 A 
HETATM    4  C   UNL     1     -10.585   1.250   0.181  1.00  0.00     0.080 A 
HETATM    5  C   UNL     1     -10.052   2.541   0.173  1.00  0.00     0.026 A 
HETATM    6  C   UNL     1      -8.665   2.721   0.096  1.00  0.00     0.009 A 
ENDROOT
BRANCH   4   7
HETATM    7  S   UNL     1     -12.347   1.010   0.183  1.00  0.00     0.266 S 
HETATM    8  O   UNL     1     -12.953   2.279  -0.175  1.00  0.00    -0.200 OA
HETATM    9  O   UNL     1     -12.660  -0.182  -0.571  1.00  0.00    -0.200 OA
BRANCH   7  10
HETATM   10  N   UNL     1     -12.720   0.789   1.794  1.00  0.00    -0.232 N 
HETATM   11  C   UNL     1     -12.418  -0.360   2.504  1.00  0.00     0.330 C 
HETATM   12  O   UNL     1     -11.762  -1.275   2.036  1.00  0.00    -0.246 OA
HETATM   13  N   UNL     1     -12.902  -0.371   3.786  1.00  0.00    -0.338 N 
HETATM   14  H   UNL     1     -13.224   0.491   4.183  1.00  0.00     0.164 HD
HETATM   15  H   UNL     1     -13.348   1.495   2.155  1.00  0.00     0.183 HD
BRANCH  13  16
HETATM   16  C   UNL     1     -12.626  -1.505   4.666  1.00  0.00     0.086 C 
HETATM   17  C   UNL     1     -13.742  -1.684   5.701  1.00  0.00     0.025 C 
HETATM   18  C   UNL     1     -13.439  -2.832   6.665  1.00  0.00     0.002 C 
HETATM   19  C   UNL     1     -12.087  -2.646   7.344  1.00  0.00     0.000 C 
HETATM   20  C   UNL     1     -10.970  -2.500   6.316  1.00  0.00     0.002 C 
HETATM   21  C   UNL     1     -11.251  -1.365   5.333  1.00  0.00     0.025 C 
ENDBRANCH  13  16
ENDBRANCH   7  10
ENDBRANCH   4   7
BRANCH   1  22
HETATM   22  C   UNL     1      -6.298   1.850  -0.048  1.00  0.00     0.058 C 
BRANCH  22  23
HETATM   23  C   UNL     1      -5.513   0.797  -0.846  1.00  0.00     0.127 C 
BRANCH  23  24
HETATM   24  N   UNL     1      -4.081   1.020  -0.832  1.00  0.00    -0.355 N 
HETATM   25  C   UNL     1      -3.282   0.467   0.149  1.00  0.00     0.271 C 
HETATM   26  O   UNL     1      -3.724  -0.153   1.111  1.00  0.00    -0.266 OA
HETATM   27  H   UNL     1      -3.619   1.495  -1.604  1.00  0.00     0.162 HD
BRANCH  25  28
HETATM   28  C   UNL     1      -1.815   0.648  -0.027  1.00  0.00     0.141 A 
HETATM   29  C   UNL     1      -0.953   0.111   0.916  1.00  0.00     0.154 A 
HETATM   30  N   UNL     1       0.394   0.240   0.827  1.00  0.00    -0.262 NA
HETATM   31  C   UNL     1       0.851   0.926  -0.249  1.00  0.00     0.048 A 
HETATM   32  C   UNL     1       2.332   1.100  -0.379  1.00  0.00     0.072 C 
HETATM   33  C   UNL     1      -0.023   1.454  -1.199  1.00  0.00     0.144 A 
HETATM   34  N   UNL     1      -1.374   1.334  -1.120  1.00  0.00    -0.252 NA
ENDBRANCH  25  28
ENDBRANCH  23  24
ENDBRANCH  22  23
ENDBRANCH   1  22
TORSDOF 7
