REMARK  7 active torsions:
REMARK  status: ('A' for Active; 'I' for Inactive)
REMARK    1  A    between atoms: C_2  and  C_3 
REMARK       I    between atoms: N_7  and  C_8 
REMARK       I    between atoms: C_8  and  N_10 
REMARK    2  A    between atoms: N_10  and  C_11 
REMARK    3  A    between atoms: C_11  and  C_12 
REMARK    4  A    between atoms: C_12  and  C_13 
REMARK    5  A    between atoms: C_16  and  S_19 
REMARK    6  A    between atoms: S_19  and  N_22 
REMARK       I    between atoms: N_22  and  C_23 
REMARK       I    between atoms: C_23  and  N_25 
REMARK    7  A    between atoms: N_25  and  C_26 
ROOT
HETATM    1  C   UNL     1       6.746   6.288  10.893  1.00  0.00    -0.057 A 
HETATM    2  C   UNL     1       7.666   5.473  11.570  1.00  0.00     0.009 A 
HETATM    3  C   UNL     1       7.477   5.134  12.911  1.00  0.00     0.026 A 
HETATM    4  C   UNL     1       6.388   5.649  13.613  1.00  0.00     0.080 A 
HETATM    5  C   UNL     1       5.457   6.460  12.963  1.00  0.00     0.026 A 
HETATM    6  C   UNL     1       5.643   6.781  11.611  1.00  0.00     0.009 A 
ENDROOT
BRANCH   4   7
HETATM    7  S   UNL     1       6.156   5.197  15.314  1.00  0.00     0.266 S 
HETATM    8  O   UNL     1       4.750   5.379  15.621  1.00  0.00    -0.200 OA
HETATM    9  O   UNL     1       6.798   3.926  15.561  1.00  0.00    -0.200 OA
BRANCH   7  10
HETATM   10  N   UNL     1       6.939   6.389  16.174  1.00  0.00    -0.232 N 
HETATM   11  C   UNL     1       8.286   6.681  16.077  1.00  0.00     0.330 C 
HETATM   12  O   UNL     1       9.039   6.125  15.291  1.00  0.00    -0.246 OA
HETATM   13  N   UNL     1       8.689   7.666  16.934  1.00  0.00    -0.338 N 
HETATM   14  H   UNL     1       7.995   8.145  17.487  1.00  0.00     0.164 HD
HETATM   15  H   UNL     1       6.326   6.878  16.811  1.00  0.00     0.183 HD
BRANCH  13  16
HETATM   16  C   UNL     1      10.054   8.176  16.921  1.00  0.00     0.086 C 
HETATM   17  C   UNL     1      10.181   9.382  15.981  1.00  0.00     0.026 C 
HETATM   18  C   UNL     1      11.606   9.935  15.971  1.00  0.00     0.006 C 
HETATM   19  C   UNL     1      12.098  10.283  17.383  1.00  0.00    -0.019 C 
HETATM   20  C   UNL     1      13.552  10.754  17.346  1.00  0.00     0.010 C 
HETATM   21  C   UNL     1      11.939   9.088  18.333  1.00  0.00     0.006 C 
HETATM   22  C   UNL     1      10.509   8.549  18.334  1.00  0.00     0.026 C 
ENDBRANCH  13  16
ENDBRANCH   7  10
ENDBRANCH   4   7
BRANCH   1  23
HETATM   23  C   UNL     1       6.954   6.707   9.447  1.00  0.00     0.058 C 
BRANCH  23  24
HETATM   24  C   UNL     1       7.694   5.687   8.567  1.00  0.00     0.129 C 
BRANCH  24  25
HETATM   25  N   UNL     1       7.913   6.152   7.209  1.00  0.00    -0.342 N 
HETATM   26  C   UNL     1       9.052   6.822   6.848  1.00  0.00     0.325 C 
HETATM   27  N   UNL     1       9.177   7.109   5.500  1.00  0.00    -0.262 N 
HETATM   28  O   UNL     1       9.915   7.143   7.664  1.00  0.00    -0.247 OA
HETATM   29  C   UNL     1      10.333   7.823   5.036  1.00  0.00     0.171 A 
HETATM   30  C   UNL     1       8.342   6.760   4.442  1.00  0.00     0.258 A 
HETATM   31  C   UNL     1      10.085   7.917   3.568  1.00  0.00    -0.054 A 
HETATM   32  C   UNL     1       8.956   7.292   3.201  1.00  0.00     0.013 A 
HETATM   33  C   UNL     1      11.041   8.658   2.700  1.00  0.00     0.046 C 
HETATM   34  O   UNL     1       7.288   6.147   4.487  1.00  0.00    -0.267 OA
HETATM   35  H   UNL     1       7.268   5.879   6.471  1.00  0.00     0.164 HD
BRANCH  32  36
HETATM   36  C   UNL     1       8.372   7.079   1.850  1.00  0.00     0.040 C 
HETATM   37  C   UNL     1       7.453   8.218   1.440  1.00  0.00     0.010 C 
ENDBRANCH  32  36
ENDBRANCH  24  25
ENDBRANCH  23  24
ENDBRANCH   1  23
TORSDOF 7
