REMARK  7 active torsions:
REMARK  status: ('A' for Active; 'I' for Inactive)
REMARK    1  A    between atoms: N_2  and  C_3 
REMARK    2  A    between atoms: N_2  and  C_20 
REMARK    3  A    between atoms: C_3  and  C_4 
REMARK    4  A    between atoms: C_4  and  O_5 
REMARK    5  A    between atoms: O_5  and  C_6 
REMARK    6  A    between atoms: C_9  and  C_10 
REMARK    7  A    between atoms: C_10  and  C_11 
ROOT
HETATM    1  C   UNL     1       2.427  -3.086  -3.797  1.00  0.00     0.068 A 
HETATM    2  C   UNL     1       1.508  -2.409  -4.600  1.00  0.00     0.037 A 
HETATM    3  C   UNL     1       0.723  -3.104  -5.524  1.00  0.00     0.010 A 
HETATM    4  C   UNL     1       0.847  -4.492  -5.673  1.00  0.00    -0.056 A 
HETATM    5  C   UNL     1       1.798  -5.163  -4.897  1.00  0.00     0.010 A 
HETATM    6  C   UNL     1       2.580  -4.465  -3.967  1.00  0.00     0.037 A 
ENDROOT
BRANCH   1   7
HETATM    7  O   UNL     1       3.204  -2.521  -2.820  1.00  0.00    -0.350 OA
BRANCH   7   8
HETATM    8  C   UNL     1       3.020  -1.113  -2.592  1.00  0.00     0.195 C 
BRANCH   8   9
HETATM    9  C   UNL     1       3.826  -0.651  -1.368  1.00  0.00     0.150 C 
BRANCH   9  10
HETATM   10  N   UNL     1       5.268  -0.706  -1.626  1.00  0.00    -0.368 N 
HETATM   11  C   UNL     1       5.986  -1.889  -1.185  1.00  0.00     0.151 C 
BRANCH  10  12
HETATM   12  C   UNL     1       5.943   0.447  -1.991  1.00  0.00     0.124 A 
HETATM   13  C   UNL     1       7.285   0.422  -2.379  1.00  0.00     0.050 A 
HETATM   14  C   UNL     1       7.951   1.602  -2.717  1.00  0.00     0.005 A 
HETATM   15  C   UNL     1       7.270   2.803  -2.657  1.00  0.00     0.019 A 
HETATM   16  C   UNL     1       5.942   2.762  -2.282  1.00  0.00     0.119 A 
HETATM   17  N   UNL     1       5.277   1.625  -1.970  1.00  0.00    -0.244 NA
ENDBRANCH  10  12
ENDBRANCH   9  10
ENDBRANCH   8   9
ENDBRANCH   7   8
ENDBRANCH   1   7
BRANCH   4  18
HETATM   18  C   UNL     1      -0.060  -5.241  -6.625  1.00  0.00     0.063 C 
BRANCH  18  19
HETATM   19  C   UNL     1       0.391  -5.342  -8.083  1.00  0.00     0.153 A 
HETATM   20  S   UNL     1       1.959  -6.243  -8.322  1.00  0.00    -0.054 SA
HETATM   21  C   UNL     1       2.714  -4.901  -9.143  1.00  0.00     0.287 A 
HETATM   22  O   UNL     1       3.857  -4.918  -9.561  1.00  0.00    -0.260 OA
HETATM   23  N   UNL     1       1.848  -3.868  -9.261  1.00  0.00    -0.287 N 
HETATM   24  C   UNL     1       0.601  -3.991  -8.729  1.00  0.00     0.239 A 
HETATM   25  H   UNL     1       2.137  -3.017  -9.716  1.00  0.00     0.172 HD
HETATM   26  O   UNL     1      -0.248  -3.110  -8.796  1.00  0.00    -0.272 OA
ENDBRANCH  18  19
ENDBRANCH   4  18
TORSDOF 7
