REMARK  6 active torsions:
REMARK  status: ('A' for Active; 'I' for Inactive)
REMARK    1  A    between atoms: C_9  and  C_11 
REMARK    2  A    between atoms: C_11  and  O_12 
REMARK    3  A    between atoms: O_12  and  C_13 
REMARK    4  A    between atoms: C_16  and  C_17 
REMARK    5  A    between atoms: C_17  and  C_18 
REMARK    6  A    between atoms: C_30  and  O_31 
ROOT
HETATM    1  C   UNL     1       7.436   3.606  -0.024  1.00  0.00     0.213 C 
ENDROOT
BRANCH   1   2
HETATM    2  C   UNL     1       6.784   2.243   0.329  1.00  0.00     0.086 C 
HETATM    3  C   UNL     1       7.505   1.145  -0.458  1.00  0.00     0.045 C 
HETATM    4  C   UNL     1       6.902  -0.209  -0.151  1.00  0.00     0.045 C 
HETATM    5  C   UNL     1       5.397  -0.164  -0.103  1.00  0.00    -0.015 A 
HETATM    6  C   UNL     1       4.727   1.079  -0.099  1.00  0.00     0.083 A 
HETATM    7  C   UNL     1       4.651  -1.358  -0.024  1.00  0.00    -0.019 A 
HETATM    8  C   UNL     1       3.313   1.159  -0.111  1.00  0.00    -0.019 A 
HETATM    9  O   UNL     1       5.402   2.287  -0.079  1.00  0.00    -0.337 OA
HETATM   10  C   UNL     1       2.563  -0.036  -0.075  1.00  0.00    -0.020 A 
HETATM   11  C   UNL     1       2.690   2.532  -0.153  1.00  0.00     0.052 C 
HETATM   12  C   UNL     1       1.054  -0.088  -0.071  1.00  0.00     0.052 C 
HETATM   13  C   UNL     1       3.247  -1.269  -0.022  1.00  0.00     0.078 A 
HETATM   14  C   UNL     1       5.324  -2.705   0.066  1.00  0.00     0.052 C 
HETATM   15  C   UNL     1       6.865   2.057   1.859  1.00  0.00     0.049 C 
BRANCH  13  16
HETATM   16  O   UNL     1       2.463  -2.397   0.034  1.00  0.00    -0.360 OA
HETATM   17  H   UNL     1       3.017  -3.191   0.005  1.00  0.00     0.217 HD
ENDBRANCH  13  16
ENDBRANCH   1   2
BRANCH   1  18
HETATM   18  O   UNL     1       8.814   3.566   0.367  1.00  0.00    -0.348 OA
BRANCH  18  19
HETATM   19  C   UNL     1       9.585   4.670   0.170  1.00  0.00     0.068 A 
HETATM   20  C   UNL     1       9.170   5.869  -0.400  1.00  0.00     0.037 A 
HETATM   21  C   UNL     1      10.077   6.930  -0.546  1.00  0.00     0.010 A 
HETATM   22  C   UNL     1      11.409   6.798  -0.130  1.00  0.00    -0.056 A 
HETATM   23  C   UNL     1      11.818   5.589   0.439  1.00  0.00     0.010 A 
HETATM   24  C   UNL     1      10.910   4.535   0.589  1.00  0.00     0.037 A 
BRANCH  22  25
HETATM   25  C   UNL     1      12.392   7.931  -0.318  1.00  0.00     0.063 C 
BRANCH  25  26
HETATM   26  C   UNL     1      12.501   8.947   0.822  1.00  0.00     0.153 A 
HETATM   27  S   UNL     1      12.990   8.256   2.438  1.00  0.00    -0.054 SA
HETATM   28  C   UNL     1      11.642   8.993   3.265  1.00  0.00     0.287 A 
HETATM   29  O   UNL     1      11.418   8.856   4.455  1.00  0.00    -0.260 OA
HETATM   30  N   UNL     1      10.895   9.720   2.404  1.00  0.00    -0.287 N 
HETATM   31  C   UNL     1      11.211   9.694   1.079  1.00  0.00     0.239 A 
HETATM   32  H   UNL     1      10.057  10.176   2.726  1.00  0.00     0.172 HD
HETATM   33  O   UNL     1      10.536  10.246   0.218  1.00  0.00    -0.272 OA
ENDBRANCH  25  26
ENDBRANCH  22  25
ENDBRANCH  18  19
ENDBRANCH   1  18
TORSDOF 6
