REMARK  7 active torsions:
REMARK  status: ('A' for Active; 'I' for Inactive)
REMARK    1  A    between atoms: C2_2  and  C4_4 
REMARK    2  A    between atoms: C7_7  and  C10_10 
REMARK       I    between atoms: C10_10  and  N1_12 
REMARK    3  A    between atoms: N1_12  and  C11_13 
REMARK    4  A    between atoms: C11_13  and  C12_14 
REMARK    5  A    between atoms: C11_13  and  C19_21 
REMARK    6  A    between atoms: C12_14  and  C13_15 
REMARK    7  A    between atoms: C19_21  and  O2_22 
ROOT
HETATM    1  C10 UNL     1      -0.240   1.773  -0.307  1.00  0.00     0.222 C 
HETATM    2  O1  UNL     1      -0.834   2.820  -0.550  1.00  0.00    -0.273 OA
HETATM    3  N1  UNL     1      -0.888   0.618   0.068  1.00  0.00    -0.346 N 
HETATM    4  H18 UNL     1      -0.390  -0.250  -0.083  1.00  0.00     0.163 HD
ENDROOT
BRANCH   3   5
HETATM    5  C11 UNL     1      -2.354   0.524  -0.008  1.00  0.00     0.186 C 
BRANCH   5   6
HETATM    6  C12 UNL     1      -2.873  -0.433   1.072  1.00  0.00     0.074 C 
BRANCH   6   7
HETATM    7  C13 UNL     1      -4.378  -0.477   1.178  1.00  0.00    -0.056 A 
HETATM    8  C14 UNL     1      -5.091  -1.594   0.722  1.00  0.00     0.007 A 
HETATM    9  C15 UNL     1      -6.484  -1.628   0.813  1.00  0.00     0.001 A 
HETATM   10  C16 UNL     1      -7.175  -0.548   1.359  1.00  0.00     0.000 A 
HETATM   11  C17 UNL     1      -6.475   0.566   1.815  1.00  0.00     0.001 A 
HETATM   12  C18 UNL     1      -5.083   0.603   1.727  1.00  0.00     0.007 A 
ENDBRANCH   6   7
ENDBRANCH   5   6
BRANCH   5  13
HETATM   13  C19 UNL     1      -2.687  -0.021  -1.394  1.00  0.00     0.163 C 
HETATM   14  O3  UNL     1      -2.063  -0.894  -1.984  1.00  0.00    -0.648 OA
BRANCH  13  15
HETATM   15  O2  UNL     1      -3.776   0.540  -1.951  1.00  0.00    -0.775 OA
HETATM   16  H27 UNL     1      -3.865   0.108  -2.825  1.00  0.00     0.167 HD
ENDBRANCH  13  15
ENDBRANCH   5  13
ENDBRANCH   3   5
BRANCH   1  17
HETATM   17  C7  UNL     1       1.281   1.676  -0.397  1.00  0.00     0.078 C 
HETATM   18  C6  UNL     1       1.902   1.357   0.969  1.00  0.00     0.014 C 
HETATM   19  C5  UNL     1       3.364   0.959   0.804  1.00  0.00     0.006 C 
HETATM   20  C4  UNL     1       3.540  -0.346  -0.008  1.00  0.00    -0.011 C 
HETATM   21  C9  UNL     1       2.334  -0.587  -0.945  1.00  0.00     0.006 C 
HETATM   22  C8  UNL     1       1.737   0.706  -1.500  1.00  0.00     0.014 C 
BRANCH  20  23
HETATM   23  C2  UNL     1       4.919  -0.380  -0.737  1.00  0.00    -0.019 C 
HETATM   24  C1  UNL     1       6.083  -0.119   0.232  1.00  0.00     0.010 C 
HETATM   25  C3  UNL     1       5.180  -1.717  -1.443  1.00  0.00     0.010 C 
ENDBRANCH  20  23
ENDBRANCH   1  17
TORSDOF 7
