REMARK  6 active torsions:
REMARK  status: ('A' for Active; 'I' for Inactive)
REMARK    1  A    between atoms: C_6  and  C_11 
REMARK       I    between atoms: C_11  and  N_13 
REMARK    2  A    between atoms: N_13  and  C_14 
REMARK    3  A    between atoms: C_14  and  C_15 
REMARK    4  A    between atoms: C_15  and  N_18 
REMARK    5  A    between atoms: N_18  and  C_19 
REMARK    6  A    between atoms: C_19  and  C_20 
REMARK       I    between atoms: C_20  and  N_22 
ROOT
HETATM    1  C   UNL     1      14.918  -2.453  -1.102  1.00  0.00     0.249 C 
HETATM    2  O   UNL     1      15.035  -3.675  -0.981  1.00  0.00    -0.271 OA
HETATM    3  N   UNL     1      16.014  -1.642  -1.293  1.00  0.00    -0.333 N 
HETATM    4  C   UNL     1      17.334  -2.212  -1.500  1.00  0.00     0.127 C 
HETATM    5  C   UNL     1      18.188  -1.030  -1.928  1.00  0.00     0.023 C 
HETATM    6  C   UNL     1      17.583   0.115  -1.123  1.00  0.00     0.042 C 
HETATM    7  C   UNL     1      16.075  -0.179  -1.165  1.00  0.00     0.194 C 
HETATM    8  C   UNL     1      15.449   0.522  -2.303  1.00  0.00     0.084 C 
HETATM    9  N   UNL     1      14.963   1.071  -3.202  1.00  0.00    -0.195 NA
ENDROOT
BRANCH   1  10
HETATM   10  C   UNL     1      13.522  -1.819  -1.133  1.00  0.00     0.373 C 
BRANCH  10  11
HETATM   11  N   UNL     1      13.309  -0.892  -0.006  1.00  0.00     0.102 N 
HETATM   12  H   UNL     1      13.429  -1.404   0.867  1.00  0.00     0.317 HD
BRANCH  11  13
HETATM   13  C   UNL     1      11.982  -0.216  -0.022  1.00  0.00     0.166 C 
HETATM   14  C   UNL     1      11.854   0.707  -1.250  1.00  0.00     0.050 C 
HETATM   15  C   UNL     1      11.927   0.684   1.233  1.00  0.00     0.050 C 
BRANCH  13  16
HETATM   16  C   UNL     1      10.772  -1.199   0.016  1.00  0.00     0.163 C 
BRANCH  16  17
HETATM   17  N   UNL     1      10.812  -2.090   1.169  1.00  0.00    -0.354 N 
HETATM   18  C   UNL     1       9.670  -2.648   1.694  1.00  0.00     0.254 C 
HETATM   19  O   UNL     1       8.550  -2.454   1.237  1.00  0.00    -0.268 OA
HETATM   20  H   UNL     1      11.709  -2.470   1.428  1.00  0.00     0.162 HD
BRANCH  18  21
HETATM   21  C   UNL     1       9.868  -3.546   2.860  1.00  0.00     0.067 A 
HETATM   22  C   UNL     1      10.947  -3.525   3.661  1.00  0.00     0.139 A 
HETATM   23  N   UNL     1      11.035  -4.383   4.750  1.00  0.00    -0.226 N 
HETATM   24  N   UNL     1      12.060  -4.490   5.624  1.00  0.00    -0.171 NA
HETATM   25  C   UNL     1       9.998  -5.268   5.048  1.00  0.00     0.151 A 
HETATM   26  C   UNL     1      11.683  -5.450   6.476  1.00  0.00     0.055 A 
HETATM   27  C   UNL     1      12.570  -5.864   7.593  1.00  0.00     0.072 C 
HETATM   28  C   UNL     1      10.408  -5.962   6.159  1.00  0.00     0.080 A 
HETATM   29  N   UNL     1       8.856  -5.324   4.301  1.00  0.00    -0.240 NA
HETATM   30  C   UNL     1       8.802  -4.510   3.286  1.00  0.00     0.137 A 
ENDBRANCH  18  21
ENDBRANCH  16  17
ENDBRANCH  13  16
ENDBRANCH  11  13
ENDBRANCH  10  11
ENDBRANCH   1  10
TORSDOF 6
