REMARK  6 active torsions:
REMARK  status: ('A' for Active; 'I' for Inactive)
REMARK    1  A    between atoms: C_3  and  C_4 
REMARK    2  A    between atoms: C_4  and  N_5 
REMARK    3  A    between atoms: C_6  and  N_29 
REMARK    4  A    between atoms: N_12  and  C_13 
REMARK    5  A    between atoms: C_13  and  C_14 
REMARK    6  A    between atoms: C_33  and  N_34 
ROOT
HETATM    1  C   UNL     1       8.402   0.258  -2.945  1.00  0.00     0.112 C 
HETATM    2  C   UNL     1       7.365   0.146  -1.920  1.00  0.00    -0.109 C 
HETATM    3  C   UNL     1       6.441   0.043  -1.006  1.00  0.00    -0.086 C 
ENDROOT
BRANCH   3   4
HETATM    4  C   UNL     1       5.364  -0.077   0.060  1.00  0.00     0.241 C 
BRANCH   4   5
HETATM    5  N   UNL     1       5.752  -1.225   1.052  1.00  0.00    -0.161 N 
HETATM    6  C   UNL     1       5.503  -2.629   0.925  1.00  0.00     0.708 A 
HETATM    7  N   UNL     1       5.869  -3.259   1.994  1.00  0.00    -0.044 NA
HETATM    8  C   UNL     1       6.400  -2.354   2.853  1.00  0.00     0.186 A 
HETATM    9  C   UNL     1       6.367  -1.097   2.349  1.00  0.00     0.167 A 
HETATM   10  N   UNL     1       6.923  -2.693   4.107  1.00  0.00    -0.285 N 
HETATM   11  C   UNL     1       6.937  -0.003   3.122  1.00  0.00     0.283 A 
HETATM   12  O   UNL     1       7.053   1.136   2.678  1.00  0.00    -0.265 OA
HETATM   13  N   UNL     1       7.419  -0.357   4.430  1.00  0.00    -0.257 N 
HETATM   14  C   UNL     1       7.390  -1.699   4.952  1.00  0.00     0.333 A 
HETATM   15  O   UNL     1       7.828  -1.939   6.069  1.00  0.00    -0.246 OA
HETATM   16  C   UNL     1       6.992  -4.078   4.539  1.00  0.00     0.163 C 
BRANCH   6  17
HETATM   17  N   UNL     1       4.851  -3.271  -0.121  1.00  0.00    -0.213 N 
HETATM   18  C   UNL     1       4.053  -4.482   0.208  1.00  0.00     0.141 C 
HETATM   19  C   UNL     1       4.601  -5.791  -0.382  1.00  0.00     0.023 C 
HETATM   20  C   UNL     1       4.888  -5.671  -1.869  1.00  0.00     0.038 C 
HETATM   21  C   UNL     1       5.860  -4.512  -2.095  1.00  0.00     0.236 C 
HETATM   22  C   UNL     1       5.296  -3.176  -1.514  1.00  0.00     0.176 C 
BRANCH  21  23
HETATM   23  N   UNL     1       6.151  -4.418  -3.537  1.00  0.00     0.084 N 
HETATM   24  H   UNL     1       5.283  -4.281  -4.056  1.00  0.00     0.313 HD
HETATM   25  H   UNL     1       6.524  -5.312  -3.864  1.00  0.00     0.313 HD
ENDBRANCH  21  23
ENDBRANCH   6  17
BRANCH  13  26
HETATM   26  C   UNL     1       8.173   0.597   5.257  1.00  0.00     0.217 C 
BRANCH  26  27
HETATM   27  C   UNL     1       7.425   1.391   6.330  1.00  0.00     0.145 A 
HETATM   28  N   UNL     1       6.184   1.826   6.059  1.00  0.00    -0.231 NA
HETATM   29  C   UNL     1       5.626   2.691   6.917  1.00  0.00     0.071 A 
HETATM   30  C   UNL     1       6.239   3.103   8.116  1.00  0.00     0.017 A 
HETATM   31  C   UNL     1       4.404   3.269   6.594  1.00  0.00     0.032 C 
HETATM   32  C   UNL     1       5.504   3.866   9.042  1.00  0.00     0.016 C 
HETATM   33  C   UNL     1       7.549   2.659   8.293  1.00  0.00     0.045 A 
HETATM   34  C   UNL     1       4.172   4.121   8.781  1.00  0.00     0.001 C 
HETATM   35  C   UNL     1       3.709   4.074   7.484  1.00  0.00     0.002 C 
HETATM   36  C   UNL     1       8.399   3.143   9.446  1.00  0.00     0.071 C 
HETATM   37  N   UNL     1       8.143   1.811   7.415  1.00  0.00    -0.236 NA
ENDBRANCH  26  27
ENDBRANCH  13  26
ENDBRANCH   4   5
ENDBRANCH   3   4
TORSDOF 6
