REMARK  10 active torsions:
REMARK  status: ('A' for Active; 'I' for Inactive)
REMARK    1  A    between atoms: O_1  and  C_2 
REMARK    2  A    between atoms: C_2  and  C_3 
REMARK    3  A    between atoms: C_5  and  C_12 
REMARK    4  A    between atoms: C_6  and  O_7 
REMARK    5  A    between atoms: C_8  and  O_9 
REMARK    6  A    between atoms: C_10  and  O_11 
REMARK    7  A    between atoms: C_17  and  C_18 
REMARK    8  A    between atoms: C_18  and  C_19 
REMARK    9  A    between atoms: C_22  and  O_23 
REMARK   10  A    between atoms: O_23  and  C_24 
ROOT
HETATM    1  C   UNL     1      15.323 -12.976   1.119  1.00  0.00    -0.026 A 
HETATM    2  C   UNL     1      14.162 -12.638   0.411  1.00  0.00     0.011 A 
HETATM    3  C   UNL     1      13.963 -11.333  -0.046  1.00  0.00     0.025 A 
HETATM    4  C   UNL     1      14.914 -10.343   0.207  1.00  0.00     0.040 A 
HETATM    5 CL   UNL     1      14.611  -8.768  -0.434  1.00  0.00    -0.084 Cl
HETATM    6  C   UNL     1      16.080 -10.646   0.928  1.00  0.00    -0.032 A 
HETATM    7  C   UNL     1      16.272 -11.969   1.366  1.00  0.00     0.019 A 
ENDROOT
BRANCH   1   8
HETATM    8  C   UNL     1      15.558 -14.413   1.557  1.00  0.00     0.186 C 
HETATM    9  O   UNL     1      16.404 -14.402   2.714  1.00  0.00    -0.368 OA
HETATM   10  C   UNL     1      16.627 -15.705   3.271  1.00  0.00     0.177 C 
HETATM   11  C   UNL     1      17.370 -16.580   2.255  1.00  0.00     0.180 C 
HETATM   12  C   UNL     1      16.559 -16.650   0.949  1.00  0.00     0.181 C 
HETATM   13  C   UNL     1      16.199 -15.249   0.425  1.00  0.00     0.182 C 
BRANCH  10  14
HETATM   14  C   UNL     1      17.451 -15.561   4.559  1.00  0.00     0.198 C 
BRANCH  14  15
HETATM   15  O   UNL     1      16.697 -14.860   5.550  1.00  0.00    -0.398 OA
HETATM   16  H   UNL     1      17.304 -14.675   6.287  1.00  0.00     0.209 HD
ENDBRANCH  14  15
ENDBRANCH  10  14
BRANCH  11  17
HETATM   17  O   UNL     1      17.608 -17.879   2.793  1.00  0.00    -0.390 OA
HETATM   18  H   UNL     1      16.879 -18.470   2.528  1.00  0.00     0.210 HD
ENDBRANCH  11  17
BRANCH  12  19
HETATM   19  O   UNL     1      17.272 -17.403  -0.041  1.00  0.00    -0.390 OA
HETATM   20  H   UNL     1      18.041 -16.876  -0.328  1.00  0.00     0.210 HD
ENDBRANCH  12  19
BRANCH  13  21
HETATM   21  O   UNL     1      15.330 -15.362  -0.713  1.00  0.00    -0.390 OA
HETATM   22  H   UNL     1      14.687 -16.074  -0.549  1.00  0.00     0.210 HD
ENDBRANCH  13  21
ENDBRANCH   1   8
BRANCH   6  23
HETATM   23  C   UNL     1      17.168  -9.632   1.212  1.00  0.00     0.078 C 
BRANCH  23  24
HETATM   24  C   UNL     1      18.362  -9.706   0.281  1.00  0.00    -0.054 A 
HETATM   25  C   UNL     1      18.211  -9.933  -1.094  1.00  0.00     0.010 A 
HETATM   26  C   UNL     1      19.320  -9.982  -1.941  1.00  0.00     0.037 A 
HETATM   27  C   UNL     1      20.598  -9.768  -1.434  1.00  0.00     0.069 A 
HETATM   28  C   UNL     1      20.761  -9.534  -0.068  1.00  0.00     0.037 A 
HETATM   29  C   UNL     1      19.652  -9.492   0.783  1.00  0.00     0.010 A 
BRANCH  27  30
HETATM   30  O   UNL     1      21.753  -9.772  -2.166  1.00  0.00    -0.344 OA
BRANCH  30  31
HETATM   31  C   UNL     1      21.634  -9.510  -3.561  1.00  0.00     0.154 C 
HETATM   32  C   UNL     1      21.203  -8.091  -3.876  1.00  0.00     0.061 C 
HETATM   33  C   UNL     1      21.754  -7.891  -5.267  1.00  0.00     0.170 C 
HETATM   34  O   UNL     1      22.950  -8.674  -5.362  1.00  0.00    -0.389 OA
HETATM   35  C   UNL     1      23.009  -9.539  -4.216  1.00  0.00     0.200 C 
ENDBRANCH  30  31
ENDBRANCH  27  30
ENDBRANCH  23  24
ENDBRANCH   6  23
TORSDOF 10
