REMARK  4 active torsions:
REMARK  status: ('A' for Active; 'I' for Inactive)
REMARK    1  A    between atoms: O_1  and  C_2 
REMARK    2  A    between atoms: C_9  and  N_12 
REMARK    3  A    between atoms: N_12  and  C_13 
REMARK    4  A    between atoms: C_13  and  C_14 
REMARK       I    between atoms: C_14  and  N_16 
ROOT
HETATM    1  C   UNL     1       6.676  -4.441   0.617  1.00  0.00     0.249 C 
HETATM    2  O   UNL     1       7.292  -5.064  -0.251  1.00  0.00    -0.271 OA
HETATM    3  N   UNL     1       6.427  -4.994   1.853  1.00  0.00    -0.333 N 
HETATM    4  C   UNL     1       6.989  -6.284   2.206  1.00  0.00     0.127 C 
HETATM    5  C   UNL     1       6.747  -6.390   3.701  1.00  0.00     0.023 C 
HETATM    6  C   UNL     1       5.394  -5.702   3.855  1.00  0.00     0.042 C 
HETATM    7  C   UNL     1       5.482  -4.520   2.874  1.00  0.00     0.194 C 
HETATM    8  C   UNL     1       5.948  -3.310   3.578  1.00  0.00     0.084 C 
HETATM    9  N   UNL     1       6.319  -2.364   4.146  1.00  0.00    -0.195 NA
ENDROOT
BRANCH   1  10
HETATM   10  C   UNL     1       6.269  -2.986   0.372  1.00  0.00     0.372 C 
BRANCH  10  11
HETATM   11  N   UNL     1       4.806  -2.804   0.411  1.00  0.00     0.102 N 
HETATM   12  H   UNL     1       4.404  -3.375  -0.337  1.00  0.00     0.317 HD
BRANCH  11  13
HETATM   13  C   UNL     1       4.372  -1.401   0.220  1.00  0.00     0.161 C 
HETATM   14  C   UNL     1       4.862  -0.819  -1.132  1.00  0.00     0.046 C 
HETATM   15  C   UNL     1       4.354   0.618  -1.327  1.00  0.00    -0.009 C 
HETATM   16  C   UNL     1       4.869   1.492  -0.172  1.00  0.00     0.009 C 
HETATM   17  C   UNL     1       2.821   0.614  -1.324  1.00  0.00     0.042 C 
HETATM   18  C   UNL     1       4.346   0.959   1.173  1.00  0.00    -0.009 C 
HETATM   19  C   UNL     1       2.813   0.958   1.161  1.00  0.00     0.042 C 
HETATM   20  C   UNL     1       4.850  -0.481   1.376  1.00  0.00     0.046 C 
HETATM   21  C   UNL     1       2.303   0.069   0.016  1.00  0.00     0.061 C 
HETATM   22  C   UNL     1       2.818  -1.371   0.216  1.00  0.00     0.079 C 
BRANCH  21  23
HETATM   23  O   UNL     1       0.881   0.062   0.010  1.00  0.00    -0.390 OA
HETATM   24  H   UNL     1       0.578   0.982  -0.093  1.00  0.00     0.210 HD
ENDBRANCH  21  23
ENDBRANCH  11  13
ENDBRANCH  10  11
ENDBRANCH   1  10
TORSDOF 4
