REMARK  10 active torsions:
REMARK  status: ('A' for Active; 'I' for Inactive)
REMARK    1  A    between atoms: C_2  and  O_3 
REMARK    2  A    between atoms: O_3  and  C_4 
REMARK    3  A    between atoms: C_7  and  C_8 
REMARK    4  A    between atoms: C_8  and  C_9 
REMARK    5  A    between atoms: C_11  and  C_16 
REMARK    6  A    between atoms: C_19  and  C_20 
REMARK    7  A    between atoms: C_20  and  O_21 
REMARK    8  A    between atoms: C_23  and  O_24 
REMARK    9  A    between atoms: C_25  and  O_26 
REMARK   10  A    between atoms: C_27  and  O_28 
ROOT
HETATM    1  C   UNL     1       9.131   0.627  -1.885  1.00  0.00    -0.032 A 
HETATM    2  C   UNL     1       8.931   0.014  -3.133  1.00  0.00     0.022 A 
HETATM    3  C   UNL     1       9.609  -1.158  -3.529  1.00  0.00     0.007 A 
HETATM    4  C   UNL     1      10.476  -1.758  -2.614  1.00  0.00     0.014 A 
HETATM    5  C   UNL     1      10.677  -1.174  -1.357  1.00  0.00     0.025 A 
HETATM    6  C   UNL     1      10.024   0.016  -0.999  1.00  0.00     0.040 A 
HETATM    7 CL   UNL     1      10.372   0.681   0.556  1.00  0.00    -0.084 Cl
ENDROOT
BRANCH   3   8
HETATM    8  C   UNL     1       9.470  -1.609  -4.971  1.00  0.00     0.223 C 
HETATM    9  O   UNL     1       8.054  -1.591  -5.335  1.00  0.00    -0.346 OA
HETATM   10  C   UNL     1       7.783  -2.931  -5.795  1.00  0.00     0.215 C 
HETATM   11  C   UNL     1       9.115  -3.283  -6.415  1.00  0.00     0.135 C 
HETATM   12  O   UNL     1       9.957  -2.947  -5.271  1.00  0.00    -0.330 OA
HETATM   13  C   UNL     1       9.488  -2.335  -7.621  1.00  0.00     0.188 C 
HETATM   14  C   UNL     1      10.633  -1.382  -7.220  1.00  0.00     0.184 C 
HETATM   15  C   UNL     1      10.293  -0.647  -5.904  1.00  0.00     0.217 C 
BRANCH  11  16
HETATM   16  C   UNL     1       9.221  -4.752  -6.816  1.00  0.00     0.207 C 
BRANCH  16  17
HETATM   17  O   UNL     1       8.234  -5.103  -7.787  1.00  0.00    -0.398 OA
HETATM   18  H   UNL     1       8.486  -4.728  -8.647  1.00  0.00     0.209 HD
ENDBRANCH  16  17
ENDBRANCH  11  16
BRANCH  13  19
HETATM   19  O   UNL     1       8.381  -1.564  -8.113  1.00  0.00    -0.390 OA
HETATM   20  H   UNL     1       7.862  -1.218  -7.362  1.00  0.00     0.210 HD
ENDBRANCH  13  19
BRANCH  14  21
HETATM   21  O   UNL     1      11.844  -2.141  -7.082  1.00  0.00    -0.390 OA
HETATM   22  H   UNL     1      11.772  -2.679  -6.268  1.00  0.00     0.210 HD
ENDBRANCH  14  21
BRANCH  15  23
HETATM   23  O   UNL     1       9.622   0.596  -6.161  1.00  0.00    -0.387 OA
HETATM   24  H   UNL     1       8.928   0.440  -6.823  1.00  0.00     0.210 HD
ENDBRANCH  15  23
ENDBRANCH   3   8
BRANCH   1  25
HETATM   25  C   UNL     1       8.398   1.922  -1.603  1.00  0.00     0.078 C 
BRANCH  25  26
HETATM   26  C   UNL     1       9.046   3.158  -2.192  1.00  0.00    -0.054 A 
HETATM   27  C   UNL     1       8.773   3.564  -3.508  1.00  0.00     0.010 A 
HETATM   28  C   UNL     1       9.354   4.722  -4.044  1.00  0.00     0.037 A 
HETATM   29  C   UNL     1      10.224   5.489  -3.274  1.00  0.00     0.068 A 
HETATM   30  C   UNL     1      10.507   5.085  -1.967  1.00  0.00     0.037 A 
HETATM   31  C   UNL     1       9.929   3.931  -1.430  1.00  0.00     0.010 A 
BRANCH  29  32
HETATM   32  O   UNL     1      10.855   6.638  -3.667  1.00  0.00    -0.352 OA
BRANCH  32  33
HETATM   33  C   UNL     1      10.621   7.089  -4.999  1.00  0.00     0.171 C 
HETATM   34  C   UNL     1      11.463   8.333  -5.228  1.00  0.00     0.034 C 
ENDBRANCH  32  33
ENDBRANCH  29  32
ENDBRANCH  25  26
ENDBRANCH   1  25
TORSDOF 10
