REMARK  4 active torsions:
REMARK  status: ('A' for Active; 'I' for Inactive)
REMARK    1  A    between atoms: C_1  and  N_13 
REMARK    2  A    between atoms: C_4  and  C_6 
REMARK       I    between atoms: C_6  and  N_8 
REMARK    3  A    between atoms: N_16  and  C_19 
REMARK    4  A    between atoms: N_24  and  C_25 
ROOT
HETATM    1  N   UNL     1       0.636   0.151  -0.019  1.00  0.00     0.098 N 
HETATM    2  C   UNL     1       0.056  -0.085  -1.360  1.00  0.00     0.292 C 
HETATM    3  C   UNL     1       0.262   1.062  -2.375  1.00  0.00     0.154 C 
HETATM    4  N   UNL     1      -0.072   2.381  -1.817  1.00  0.00    -0.362 N 
HETATM    5  C   UNL     1       0.282   2.636  -0.404  1.00  0.00     0.154 C 
HETATM    6  C   UNL     1       0.034   1.406   0.490  1.00  0.00     0.292 C 
ENDROOT
BRANCH   1   7
HETATM    7  C   UNL     1       2.113   0.192  -0.019  1.00  0.00     0.253 C 
HETATM    8  C   UNL     1       2.813  -1.111  -0.415  1.00  0.00     0.306 C 
HETATM    9  N   UNL     1       4.190  -0.956   0.083  1.00  0.00     0.099 N 
HETATM   10  C   UNL     1       4.066  -0.235   1.379  1.00  0.00     0.314 C 
HETATM   11  H   UNL     1       4.702  -0.364  -0.568  1.00  0.00     0.317 HD
HETATM   12  C   UNL     1       2.703   0.460   1.362  1.00  0.00     0.083 C 
BRANCH  10  13
HETATM   13  C   UNL     1       4.212  -1.235   2.557  1.00  0.00     0.254 C 
HETATM   14  O   UNL     1       3.312  -1.423   3.373  1.00  0.00    -0.271 OA
HETATM   15  N   UNL     1       5.418  -1.911   2.671  1.00  0.00    -0.341 N 
HETATM   16  C   UNL     1       5.574  -2.909   3.710  1.00  0.00     0.137 C 
HETATM   17  C   UNL     1       6.670  -1.442   2.134  1.00  0.00     0.199 C 
HETATM   18  C   UNL     1       6.819  -3.742   3.437  1.00  0.00     0.095 C 
HETATM   19  S   UNL     1       7.809  -2.833   2.222  1.00  0.00    -0.148 SA
ENDBRANCH  10  13
ENDBRANCH   1   7
BRANCH   4  20
HETATM   20  C   UNL     1      -0.903   3.247  -2.478  1.00  0.00     0.129 C 
HETATM   21  C   UNL     1      -1.998   2.979  -3.271  1.00  0.00     0.079 C 
HETATM   22  C   UNL     1      -2.620   4.222  -3.497  1.00  0.00     0.055 C 
HETATM   23  C   UNL     1      -3.870   4.479  -4.252  1.00  0.00     0.072 C 
HETATM   24  N   UNL     1      -1.964   5.225  -2.906  1.00  0.00    -0.171 NA
HETATM   25  N   UNL     1      -0.827   4.650  -2.423  1.00  0.00    -0.217 N 
BRANCH  25  26
HETATM   26  C   UNL     1       0.257   5.470  -1.993  1.00  0.00     0.060 A 
HETATM   27  C   UNL     1       0.000   6.748  -1.477  1.00  0.00     0.031 A 
HETATM   28  C   UNL     1       1.055   7.527  -0.998  1.00  0.00     0.002 A 
HETATM   29  C   UNL     1       2.366   7.058  -1.070  1.00  0.00     0.000 A 
HETATM   30  C   UNL     1       2.632   5.808  -1.628  1.00  0.00     0.002 A 
HETATM   31  C   UNL     1       1.580   5.017  -2.090  1.00  0.00     0.031 A 
ENDBRANCH  25  26
ENDBRANCH   4  20
TORSDOF 4
